FORMULA,IDENTIFIER: Sample number,IDENTIFIER: Point,IDENTIFIER: Row,IDENTIFIER: Column,PROPERTY: Cubic lattice constant ($\r{A}$),PROPERTY: FWHM of 110 peak ($\degree$),PROPERTY: FWHM of 111 peak ($\degree$),PROPERTY: Max intensity of 110 peak (counts),PROPERTY: Max intensity of 111 peak (counts),PROPERTY: Position of 110 peak ($\degree$),PROPERTY: Position of 111 peak ($\degree$),PROPERTY: A_avg_X,PROPERTY: A_avg_at_radius,PROPERTY: A_avg_ion_radius,PROPERTY: A_avg_mass,PROPERTY: B_avg_X,PROPERTY: B_avg_at_radius,PROPERTY: B_avg_ion_radius,PROPERTY: B_avg_mass,PROPERTY: AB_site_ratio,PROPERTY: AB_X_ratio,PROPERTY: AB_at_radius_ratio,PROPERTY: AB_ion_radius_ratio,PROPERTY: AB_mass_ratio
Ba1.0O3,01243,1,1,1,4.1014113,0.51928127,0.45151868,1282.4353,329.9722,30.7939,37.965678999999994,0.89,2.15,1.49,137.327,0.0,0.0,0.0,0.0,inf,inf,inf,inf,inf
Ba1.0O3,01243,2,1,2,4.107423799999999,0.47247702,,1487.4332,,30.747711,,0.89,2.15,1.49,137.327,0.0,0.0,0.0,0.0,inf,inf,inf,inf,inf
Ba1.0O3,01243,3,1,3,4.1060724,0.5012964,,1316.7155,,30.758081,,0.89,2.15,1.49,137.327,0.0,0.0,0.0,0.0,inf,inf,inf,inf,inf
Ba1.0O3,01243,4,1,4,4.101728,0.52945864,,1159.9692,,30.791468,,0.89,2.15,1.49,137.327,0.0,0.0,0.0,0.0,inf,inf,inf,inf,inf
Ba1.0O3,01243,5,1,5,4.102135700000001,0.52455723,,1088.3037,,30.788328000000003,,0.89,2.15,1.49,137.327,0.0,0.0,0.0,0.0,inf,inf,inf,inf,inf
Ba1.0O3,01243,6,1,6,4.0986257,0.52731419,,1082.774,,30.815351,,0.89,2.15,1.49,137.327,0.0,0.0,0.0,0.0,inf,inf,inf,inf,inf
Ba1.0O3,01243,7,1,7,4.0974336000000005,0.53058964,,1040.9563,,30.824539,,0.89,2.15,1.49,137.327,0.0,0.0,0.0,0.0,inf,inf,inf,inf,inf
Ba1.0O3,01243,8,1,8,4.0951972,0.55487359,,1015.0778,,30.841789000000002,,0.89,2.15,1.49,137.327,0.0,0.0,0.0,0.0,inf,inf,inf,inf,inf
Ba1.0O3,01243,9,1,9,4.0910354,0.5529470999999999,,1034.8616,,30.873946999999998,,0.89,2.15,1.49,137.327,0.0,0.0,0.0,0.0,inf,inf,inf,inf,inf
Ba1.0O3,01243,10,1,10,4.0772672,0.57958442,,1105.6187,,30.980814000000002,,0.89,2.15,1.49,137.327,0.0,0.0,0.0,0.0,inf,inf,inf,inf,inf
Ba1.0O3,01243,11,1,11,4.0700026,0.6634326,,904.21698,,31.037504,,0.89,2.15,1.49,137.327,0.0,0.0,0.0,0.0,inf,inf,inf,inf,inf
Ba1.0O3,01243,12,2,1,4.115158999999999,0.47317284,,1555.9171,,30.688488,,0.89,2.15,1.49,137.327,0.0,0.0,0.0,0.0,inf,inf,inf,inf,inf
Ba1.0O3,01243,13,2,2,4.1112142,0.50101954,0.66704047,1420.2161,321.6004,30.718662,37.91814,0.89,2.15,1.49,137.327,0.0,0.0,0.0,0.0,inf,inf,inf,inf,inf
Ba1.0O3,01243,14,2,3,4.109767,0.52539814,0.58106792,1407.5410000000002,379.78726,30.729746000000002,37.898647,0.89,2.15,1.49,137.327,0.0,0.0,0.0,0.0,inf,inf,inf,inf,inf
Ba1.0O3,01243,15,2,4,4.1090055,0.50210816,0.50302303,1420.2081,426.25928,30.735582,37.862621000000004,0.89,2.15,1.49,137.327,0.0,0.0,0.0,0.0,inf,inf,inf,inf,inf
Ba1.0O3,01243,16,2,5,4.109076,0.52364814,0.53626013,1506.4305,478.9093,30.735041,37.896076,0.89,2.15,1.49,137.327,0.0,0.0,0.0,0.0,inf,inf,inf,inf,inf
Ba1.0O3,01243,17,2,6,4.1073623,0.51284176,0.47606191,1476.3849,470.70724,30.748182,37.913605,0.89,2.15,1.49,137.327,0.0,0.0,0.0,0.0,inf,inf,inf,inf,inf
Ba1.0O3,01243,18,2,7,4.1070261,0.48376572,0.51371425,1539.4409,419.25574,30.750763,37.921673,0.89,2.15,1.49,137.327,0.0,0.0,0.0,0.0,inf,inf,inf,inf,inf
Ba1.0O3,01243,19,2,8,4.105537399999999,0.49014771,0.60103291,1504.0836,377.15982,30.762186,37.884468,0.89,2.15,1.49,137.327,0.0,0.0,0.0,0.0,inf,inf,inf,inf,inf
Ba1.0O3,01243,20,2,9,4.1047869,0.46818206,0.56095684,1459.7909,305.66787999999997,30.767952,38.002586,0.89,2.15,1.49,137.327,0.0,0.0,0.0,0.0,inf,inf,inf,inf,inf
Ba1.0O3,01243,21,2,10,4.1010318,0.50725853,,1238.958,,30.796823999999997,,0.89,2.15,1.49,137.327,0.0,0.0,0.0,0.0,inf,inf,inf,inf,inf
Ba1.0O3,01243,22,2,11,4.0965734,0.50646657,,1205.8099,,30.831173,,0.89,2.15,1.49,137.327,0.0,0.0,0.0,0.0,inf,inf,inf,inf,inf
Ba1.0O3,01243,23,3,1,4.109489,0.61262888,,802.0382099999999,,30.731876,,0.89,2.15,1.49,137.327,0.0,0.0,0.0,0.0,inf,inf,inf,inf,inf
Ba1.0O3,01243,24,3,2,4.1072087,0.53985733,0.55656362,960.10266,372.84497000000005,30.749363,37.913605,0.89,2.15,1.49,137.327,0.0,0.0,0.0,0.0,inf,inf,inf,inf,inf
Ba1.0O3,01243,25,3,3,4.1043429,0.53197205,0.45625794,1081.9132,449.83514,30.771364000000002,37.953522,0.89,2.15,1.49,137.327,0.0,0.0,0.0,0.0,inf,inf,inf,inf,inf
Ba1.0O3,01243,26,3,4,4.101376999999999,0.55379069,0.55638206,1213.4158,431.91402999999997,30.794166999999998,37.959216999999995,0.89,2.15,1.49,137.327,0.0,0.0,0.0,0.0,inf,inf,inf,inf,inf
Ba1.0O3,01243,27,3,5,4.1008377000000005,0.53061026,0.48026267,1315.3654,498.01999000000006,30.798315000000002,37.956672999999995,0.89,2.15,1.49,137.327,0.0,0.0,0.0,0.0,inf,inf,inf,inf,inf
Ba1.0O3,01243,28,3,6,4.1017871,0.5200299,0.47338736,1395.067,479.58124000000004,30.791012,37.951431,0.89,2.15,1.49,137.327,0.0,0.0,0.0,0.0,inf,inf,inf,inf,inf
Ba1.0O3,01243,29,3,7,4.1029434,0.5336808000000001,0.4882026,1388.3395,454.84002999999996,30.782120000000003,37.932186,0.89,2.15,1.49,137.327,0.0,0.0,0.0,0.0,inf,inf,inf,inf,inf
Ba1.0O3,01243,30,3,8,4.103359200000001,0.51622093,0.64365005,1368.4476,369.10177999999996,30.778921,37.968216,0.89,2.15,1.49,137.327,0.0,0.0,0.0,0.0,inf,inf,inf,inf,inf
Ba1.0O3,01243,31,3,9,4.1051936,0.51748794,,1325.8438,,30.764826,,0.89,2.15,1.49,137.327,0.0,0.0,0.0,0.0,inf,inf,inf,inf,inf
Ba1.0O3,01243,32,3,10,4.1047821,0.53115976,,1255.239,,30.76799,,0.89,2.15,1.49,137.327,0.0,0.0,0.0,0.0,inf,inf,inf,inf,inf
Ba1.0O3,01243,33,3,11,4.1035867,0.50303102,,1199.8419,,30.777174,,0.89,2.15,1.49,137.327,0.0,0.0,0.0,0.0,inf,inf,inf,inf,inf
Ba1.0O3,01243,34,4,1,,,,,,,,0.89,2.15,1.49,137.327,0.0,0.0,0.0,0.0,inf,inf,inf,inf,inf
Ba1.0O3,01243,35,4,2,,,,,,,,0.89,2.15,1.49,137.327,0.0,0.0,0.0,0.0,inf,inf,inf,inf,inf
Ba1.0O3,01243,36,4,3,4.1026626,0.68902946,0.53793466,393.05157,315.53,30.784275,38.015503,0.89,2.15,1.49,137.327,0.0,0.0,0.0,0.0,inf,inf,inf,inf,inf
Ba1.0O3,01243,37,4,4,4.098842100000001,0.61588991,0.495083,543.84808,383.37023999999997,30.813684000000002,38.023582,0.89,2.15,1.49,137.327,0.0,0.0,0.0,0.0,inf,inf,inf,inf,inf
Ba1.0O3,01243,38,4,5,4.093403299999999,0.64477289,0.44510502,616.8158599999999,478.64105,30.855642,38.030712,0.89,2.15,1.49,137.327,0.0,0.0,0.0,0.0,inf,inf,inf,inf,inf
Ba1.0O3,01243,39,4,6,4.0920701,0.58952165,0.39953393,708.85162,459.15234000000004,30.865946,38.054588,0.89,2.15,1.49,137.327,0.0,0.0,0.0,0.0,inf,inf,inf,inf,inf
Ba1.0O3,01243,40,4,7,4.0902472,0.53679454,0.37744257,770.9068599999999,463.22655999999995,30.880046999999998,38.066803,0.89,2.15,1.49,137.327,0.0,0.0,0.0,0.0,inf,inf,inf,inf,inf
Ba1.0O3,01243,41,4,8,4.0878148,0.55225086,0.29449254,802.63873,369.2699,30.898878000000003,38.105877,0.89,2.15,1.49,137.327,0.0,0.0,0.0,0.0,inf,inf,inf,inf,inf
Ba1.0O3,01243,42,4,9,4.0884824,0.5343926,,854.8684099999999,,30.893704999999997,,0.89,2.15,1.49,137.327,0.0,0.0,0.0,0.0,inf,inf,inf,inf,inf
Ba1.0O3,01243,43,4,10,4.0819526,0.56895447,,1054.7906,,30.944363,,0.89,2.15,1.49,137.327,0.0,0.0,0.0,0.0,inf,inf,inf,inf,inf
Ba1.0O3,01243,44,4,11,4.0749388,0.63719267,,981.0079300000001,,30.998959999999997,,0.89,2.15,1.49,137.327,0.0,0.0,0.0,0.0,inf,inf,inf,inf,inf